ITEM: TIMESTEP
0
ITEM: NUMBER OF ATOMS
12
ITEM: BOX BOUNDS pp pp pp
0.0 12.0
0.0 12.0
0.0 12.0
ITEM: ATOMS id type x y z
1 1 2.0000 2.0000 2.0000
2 2 2.9572 2.0000 2.0000
3 2 1.7600 2.9270 2.0000
4 1 5.0000 5.0000 5.0000
5 2 5.9572 5.0000 5.0000
6 2 4.7600 5.9270 5.0000
7 1 8.0000 2.5000 5.5000
8 2 8.9572 2.5000 5.5000
9 2 7.7600 3.4270 5.5000
10 1 2.8000 8.2000 6.5000
11 2 3.7572 8.2000 6.5000
12 2 2.5600 9.1270 6.5000
ITEM: TIMESTEP
1000
ITEM: NUMBER OF ATOMS
12
ITEM: BOX BOUNDS pp pp pp
0.0 12.0
0.0 12.0
0.0 12.0
ITEM: ATOMS id type x y z
1 1 2.1000 2.0500 2.0000
2 2 3.0572 2.0500 2.0000
3 2 1.8600 2.9770 2.0000
4 1 5.0500 5.1000 5.0500
5 2 6.0072 5.1000 5.0500
6 2 4.8100 6.0270 5.0500
7 1 8.0500 2.6000 5.4500
8 2 9.0072 2.6000 5.4500
9 2 7.8100 3.5270 5.4500
10 1 2.9000 8.1500 6.6000
11 2 3.8572 8.1500 6.6000
12 2 2.6600 9.0770 6.6000
